9914
Atoms. Timestep: 495000
C1 13.2164 27.0893 130.939
C2 13.3147 29.0549 129.079
C3 9.90873 25.2271 131.38
C1 12.3496 13.9902 116.429
C2 14.6005 14.2992 114.956
C3 11.8616 16.3813 119.369
C1 23.2067 14.3202 144.529
C2 22.0797 12.0195 145.406
C3 20.9718 17.4163 144.657
C1 25.3071 17.3632 9.95371
C2 26.4639 14.9669 10.4556
C3 27.7915 20.2531 9.68594
C1 0.352855 16.7878 29.2571
C2 34.1001 17.8083 31.1292
C3 0.313115 18.4917 25.8372
C1 31.8375 12.0595 115.825
C2 29.2269 12.3213 115.155
C3 34.3862 13.5019 113.37
C1 31.8639 20.0079 51.8123
C2 34.0539 18.4802 51.3627
C3 28.5739 18.3579 50.788
C1 7.6376 27.637 188.633
C2 4.99594 27.0631 188.79
C3 9.67974 25.5339 186.183
C1 33.952 10.3651 95.0159
C2 32.7305 9.93827 92.6373
C3 2.33852 10.0169 94.9175
C1 1.139 13.8971 47.3697
C2 34.4672 15.6143 47.5183
C3 0.540575 10.4326 48.8661
C1 17.1818 6.48345 49.0469
C2 15.089 4.81032 48.6557
C3 18.886 6.14914 52.4495
C1 9.28869 21.0196 76.2837
C2 11.3161 21.6849 77.9515
C3 8.87967 17.3273 75.3867
C1 24.9223 4.34745 127.044
C2 25.5196 2.85373 124.866
C3 22.7516 2.65112 129.692
C1 1.33729 29.1525 79.5066
C2 2.19186 1.05408 79.5864
C3 35.1533 28.0309 76.2234
C1 20.6373 15.4775 60.5574
C2 21.8714 13.9465 62.4193
C3 20.4153 19.2161 61.3164
C1 2.09497 21.1141 120.165
C2 35.352 19.8693 121.224
C3 4.53817 18.9571 118.169
C1 17.3341 9.02843 125.983
C2 17.3404 6.50992 124.988
C3 16.0556 9.36686 129.567
C1 15.4349 1.11713 146.279
C2 17.3703 29.9739 146.837
C3 12.4544 30.5344 144.241
C1 27.6917 20.4596 140.042
C2 29.4286 19.2917 141.76
C3 24.6989 18.322 139.006
C1 14.1657 30.5155 155.299
C2 11.6438 0.288438 156.181
C3 15.3582 26.8896 155.465
C1 20.2565 26.9967 50.8119
C2 19.313 25.093 49.1333
C3 17.5718 28.4888 53.0838
C1 34.9607 27.7755 12.4873
C2 35.2006 28.213 15.149
C3 2.73286 26.7665 10.6399
C1 24.4324 0.00695215 87.4392
C2 24.0593 2.67905 87.2109
C3 21.6587 28.5476 85.8964
C1 24.5305 7.88146 65.407
C2 24.8596 9.74014 63.4657
C3 21.3665 5.77093 65.0482
C1 30.8283 24.3981 66.5834
C2 29.7049 22.7812 68.4428
C3 30.3249 28.1542 67.0726
C1 13.1259 5.39065 43.407
C2 12.433 6.72842 41.1569
C3 12.3923 7.09684 46.7469
C1 30.1959 7.02148 144.8
C2 27.5037 6.89015 145.059
C3 31.9881 9.61855 146.955
C1 25.5572 8.72542 186.133
C2 27.6669 9.50359 184.625
C3 26.0567 5.48113 188.089
C1 19.023 10.7767 92.9519
C2 16.6026 9.60758 93.2791
C3 18.9358 14.5957 93.0064
C1 30.3595 23.3847 79.5901
C2 29.0491 21.7393 77.8846
C3 29.6916 22.9052 83.3217
C1 19.3321 27.2272 128.251
C2 19.1823 24.8184 129.478
C3 19.389 27.093 124.433
C1 24.9259 12.6577 104.288
C2 24.9698 14.5561 102.357
C3 28.3556 11.4485 105.46
C1 15.8662 10.7393 39.2441
C2 18.0392 12.3513 39.3524
C3 13.7392 10.6853 42.4176
C1 34.059 16.6183 140.215
C2 31.4368 17.0356 140.746
C3 0.996487 16.7134 143.223
C1 30.8078 14.5985 67.6479
C2 29.7418 15.1284 65.2157
C3 31.1441 10.9247 68.6421
C1 32.1942 5.73837 110.176
C2 31.7666 7.43752 108.112
C3 32.2048 2.04511 109.199
C1 6.81955 11.7956 133.207
C2 4.57264 11.737 131.696
C3 8.10657 15.2283 134.285
C1 28.8269 11.7072 76.1797
C2 27.1525 12.5478 78.1351
C3 32.504 11.1905 77.0829
C1 18.126 9.98109 143.807
C2 15.741 10.8907 144.71
C3 20.4358 8.66845 146.553
C1 21.4528 9.66832 100.604
C2 23.8812 10.8443 100.835
C3 18.4591 11.8493 99.6614
C1 10.4156 21.0915 159.265
C2 8.5286 22.6862 158.157
C3 9.05645 18.32 161.516
C1 4.51077 4.09769 140.887
C2 6.27263 6.08361 140.352
C3 2.26491 2.86835 138.05
C1 8.22908 7.10854 82.2204
C2 9.80148 4.96499 82.7363
C3 5.54622 7.98949 84.795
C1 17.7901 27.3873 99.1079
C2 18.3605 30.011 98.7548
C3 14.1176 26.3777 98.796
C1 18.077 2.19857 76.4224
C2 18.5961 3.35444 74.0297
C3 17.9335 4.61303 79.3801
C1 17.6641 4.26809 99.3129
C2 18.0209 5.59342 101.648
C3 19.5071 5.48768 96.1949
C1 7.59232 0.69931 69.7872
C2 5.14233 1.80053 69.4429
C3 8.17856 29.6319 73.1415
C1 1.17539 21.6488 57.3368
C2 2.82568 21.6703 59.4838
C3 2.65367 20.5532 53.9872
C1 32.1502 8.126 124.775
C2 34.3373 8.11582 126.372
C3 28.8625 7.12941 126.448
C1 16.6711 25.1991 55.8382
C2 17.5436 25.6766 58.357
C3 14.1108 22.3786 55.543
C1 15.5358 20.3845 142.835
C2 16.2188 18.8016 140.747
C3 17.9907 23.1665 143.749
C1 24.3124 25.1382 65.2976
C2 26.0569 26.8072 64.0709
C3 21.3169 26.7775 67.013
C1 7.47744 7.80333 33.4296
C2 6.28786 7.12593 31.0931
C3 11.0794 6.5977 33.8419
C1 30.9499 27.586 117.967
C2 29.4311 25.7313 119.225
C3 32.6488 30.1297 120.256
C1 30.1685 5.93937 172.796
C2 27.8098 7.03688 172.044
C3 30.098 2.22205 173.677
C1 33.3796 1.30787 103.703
C2 30.8532 1.24278 104.676
C3 0.559529 29.8107 105.485
C1 13.4326 17.8405 129.39
C2 13.8459 17.4285 126.745
C3 12.1369 21.2817 130.428
C1 9.55324 22.1427 40.017
C2 9.02477 24.5219 38.8377
C3 8.54611 22.0737 43.7006
C1 27.4347 25.5848 39.8417
C2 27.1736 27.0347 42.1139
C3 25.9682 22.056 39.8576
C1 14.6707 2.24491 84.3524
C2 12.3643 0.838232 84.1665
C3 15.7017 3.35512 87.8602
C1 25.1618 11.954 22.5916
C2 25.7647 11.8119 19.9556
C3 26.2161 8.97582 24.7406
C1 5.44131 23.9595 154.129
C2 5.11593 25.4622 151.9
C3 8.17482 21.2949 153.973
C1 4.81991 10.7768 58.967
C2 2.97944 12.5649 58.1021
C3 7.6818 12.272 61.0093
C1 14.2914 13.3905 9.5086
C2 16.9203 13.6047 10.1216
C3 12.0666 16.1987 10.8363
C1 34.8958 16.7768 71.7049
C2 32.8079 17.5677 70.1722
C3 0.869437 19.3139 74.2008
C1 21.2012 11.1805 79.8509
C2 20.6192 8.55451 79.5355
C3 21.1217 12.5115 83.4317
C1 7.33731 25.8551 119.206
C2 7.11988 23.5823 117.75
C3 5.61906 25.7126 122.615
C1 17.5692 30.0472 134.267
C2 16.3929 1.79289 133.91
C3 21.2886 30.1378 135.132
C1 2.33331 2.90885 86.3345
C2 1.19602 0.776456 87.5558
C3 4.03554 2.30732 82.9668
C1 27.2639 8.92959 29.7894
C2 24.9308 10.2979 29.6546
C3 27.7639 6.67513 32.8331
C1 17.3473 24.1523 75.1318
C2 18.6725 26.2589 74.0637
C3 14.1247 24.8151 77.0764
C1 1.49715 17.8042 82.9201
C2 35.1297 16.2603 81.5906
C3 4.98518 18.1264 81.393
C1 12.2073 9.27323 91.0052
C2 13.943 11.198 91.7897
C3 9.45156 10.3237 88.5759
C1 34.2833 4.14563 117.275
C2 0.500731 3.06934 119.147
C3 0.586522 5.75507 114.267
C1 26.3371 18.0006 84.9996
C2 24.9326 19.6517 83.3762
C3 25.0949 17.6287 88.5945
C1 35.3019 10.6542 155.441
C2 1.33454 12.8863 154.939
C3 32.8704 9.43214 152.758
C1 1.10478 24.4577 112.809
C2 34.237 25.8955 113.026
C3 1.25541 21.4052 115.102
C1 25.8514 25.1042 80.243
C2 23.1481 25.2618 80.2752
C3 27.7723 28.3352 79.5542
C1 1.64563 12.5684 76.3959
C2 0.764725 14.633 74.8811
C3 1.32258 12.9037 80.1888
C1 5.05292 7.19437 144.93
C2 2.34542 7.24146 144.959
C3 6.91794 10.33 143.792
C1 27.2473 30.2103 131.611
C2 29.6462 29.0402 131.152
C3 27.1202 3.34437 131.985
C1 5.61959 14.9936 94.4143
C2 7.10152 13.0984 95.6577
C3 5.88049 15.2423 90.6097
C1 33.8961 21.2277 110.753
C2 31.2921 21.7223 111.306
C3 34.5812 17.6379 109.64
C1 7.91385 16.7153 106.752
C2 10.1526 15.8613 108.013
C3 8.48978 17.5879 103.078
C1 11.4263 23.2925 137.074
C2 8.98427 23.8223 138.117
C3 14.4176 23.7283 139.411
C1 11.4464 7.11873 71.8586
C2 13.1558 8.99243 70.9097
C3 7.76945 7.5724 70.923
C1 2.56908 19.3868 179.542
C2 0.975079 19.4768 177.355
C3 2.72705 22.639 181.541
C1 27.4939 29.9936 103.739
C2 24.9122 29.4862 103.099
C3 28.5142 28.8935 107.252
C1 10.9522 1.38695 97.6126
C2 9.14071 0.211669 95.9781
C3 10.134 4.82434 99.0689
C1 32.9191 13.9234 89.8078
C2 30.7365 12.3207 89.7941
C3 33.6835 15.7401 86.5347
C1 11.3129 13.2681 17.1613
C2 11.3158 14.2247 19.6944
C3 7.77222 12.7661 15.8178
C1 24.2394 11.2814 156.889
C2 25.9564 12.0538 154.942
C3 21.2395 9.1764 155.806
C1 6.46188 17.2979 55.5455
C2 6.43985 19.0027 57.6494
C3 8.02698 18.585 52.3056
C1 31.4141 15.3165 170.007
C2 29.5433 13.662 168.96
C3 30.3056 17.4426 172.982
C1 14.1602 19.3403 80.8819
C2 11.685 18.7935 81.835
C3 16.9042 16.7466 81.4709
C1 4.60568 22.0676 101.466
C2 1.95547 22.3396 100.98
C3 6.96895 24.2088 99.3612
C1 2.59844 29.9514 61.3562
C2 0.965638 28.2623 62.7029
C3 6.32368 29.1981 61.7427
C1 5.28598 10.0024 103.939
C2 7.89005 10.6506 103.577
C3 2.83627 11.73 101.57
C1 15.9858 20.7617 183.693
C2 14.7588 18.8177 182.261
C3 18.649 22.8003 181.862
C1 33.6667 26.8039 157.54
C2 31.6715 25.2584 156.558
C3 34.6453 29.9143 155.547
C1 21.6883 15.8433 157.449
C2 19.7955 14.4316 156.123
C3 24.9576 16.3403 155.535
C1 16.039 7.25321 135.021
C2 14.6969 9.32593 136.133
C3 17.9634 4.85301 137.289
C1 30.5461 14.244 56.4409
C2 29.9897 12.9535 58.7558
C3 27.6736 14.6728 53.9572
C1 7.96482 14.6076 157.623
C2 7.27167 14.6871 155.006
C3 5.30166 15.7253 160.125
C1 10.457 9.07184 173.698
C2 10.3502 6.6177 174.838
C3 10.8291 9.08127 169.896
C1 23.4595 19.0019 117.426
C2 23.2788 20.3641 115.092
C3 24.6234 20.9132 120.524
C1 32.0268 5.19036 86.6619
C2 29.9427 3.61808 85.9431
C3 33.2116 4.83194 90.2767
C1 18.7704 11.823 150.081
C2 20.7898 10.0613 150.471
C3 15.3491 10.3668 149.201
C1 10.5973 3.60064 110.595
C2 10.3473 1.08875 109.615
C3 13.1926 5.81933 108.88
C1 23.3119 21.5994 183.867
C2 22.2866 23.4394 182.166
C3 26.7402 22.3788 185.364
C1 21.8242 30.4157 115.474
C2 21.1675 29.3441 117.872
C3 19.2742 2.18324 114.002
C1 6.87073 4.91624 119.556
C2 8.93191 5.01172 121.309
C3 6.78396 7.78915 117.039
C1 35.4257 25.4452 91.6111
C2 1.12957 27.6376 90.4837
C3 33.4682 23.131 89.2845
C1 26.3362 4.44055 169.51
C2 24.7581 6.51422 170.246
C3 25.1805 0.992864 170.681
C1 19.0926 14.6313 50.3075
C2 21.2701 15.8301 49.2333
C3 16.0348 14.3507 48.0339
C1 15.9169 25.3902 114.332
C2 17.5957 25.4579 112.209
C3 16.0644 28.467 116.592
C1 17.4094 11.126 113.056
C2 18.2282 10.3146 110.606
C3 14.2105 9.48454 114.348
C1 15.1787 28.5143 171.667
C2 17.8128 27.8893 171.601
C3 14.2551 1.30906 172.996
C1 25.9257 28.6934 154.022
C2 27.3262 26.5606 154.929
C3 23.4024 30.2276 156.447
C1 16.3827 0.53785 92.3756
C2 18.7157 1.16734 93.5975
C3 14.5821 28.1273 93.7488
C1 12.615 23.3072 68.6266
C2 10.467 21.7824 67.9998
C3 15.3013 21.4573 70.6153
C1 30.9993 13.9206 123.496
C2 28.6271 13.5169 122.254
C3 30.7982 14.3947 127.282
C1 28.1842 4.03386 137.957
C2 27.3374 3.35157 140.437
C3 28.6047 7.77021 137.277
C1 22.7185 11.1252 14.5425
C2 21.5341 13.2164 15.7903
C3 22.4694 11.0438 10.7309
C1 17.3986 20.0791 112.169
C2 18.9013 22.2287 111.495
C3 18.1828 18.4942 115.556
C1 29.1485 27.5824 146.359
C2 27.7899 28.3893 144.16
C3 28.8039 23.9029 147.331
C1 28.2612 6.54365 58.3452
C2 30.2347 5.76192 60.0266
C3 25.0955 7.89788 60.0015
C1 31.8853 26.0002 133.605
C2 32.124 28.6351 133.027
C3 28.3794 24.5638 134.104
C1 34.5199 3.74091 26.4977
C2 35.1779 2.46304 28.7927
C3 1.33356 3.05767 23.4708
C1 6.70364 24.3646 134.278
C2 5.18409 22.1258 134.169
C3 5.42664 27.4636 132.443
C1 0.937737 28.1622 50.7202
C2 0.413954 29.807 48.6335
C3 34.3377 24.9255 50.9659
C1 28.9363 19.6939 104.852
C2 31.5476 19.887 105.542
C3 27.7437 22.1425 102.172
C1 8.61632 19.2567 64.1442
C2 7.77673 20.3141 61.797
C3 6.6929 16.2155 65.43
C1 29.879 30.0566 72.2955
C2 28.3677 30.6701 70.1334
C3 33.6394 29.5375 71.8497
C1 16.9403 26.2381 28.608
C2 14.5534 25.8961 27.3756
C3 19.435 28.5609 26.8815
C1 25.9581 5.53329 96.281
C2 23.4949 4.95699 95.3151
C3 26.5586 9.14163 97.3839
C1 20.6983 9.06218 46.4072
C2 21.7521 11.3146 47.478
C3 21.1241 8.65738 42.6321
C1 29.9816 7.03712 72.6331
C2 31.7752 7.41252 70.6394
C3 31.0755 4.68969 75.4423
C1 32.6961 5.96066 40.5564
C2 31.3568 4.45383 38.7482
C3 30.9715 9.17174 41.7041
C1 18.6912 4.79701 70.7539
C2 20.2046 6.04132 68.8845
C3 16.1062 2.2752 69.503
C1 0.220276 2.05366 67.2576
C2 0.704493 1.37876 64.6799
C3 32.0206 1.84243 68.4764
C1 30.0114 10.2604 85.0574
C2 30.5134 12.262 86.8106
C3 26.9913 8.05806 85.8507
C1 10.4759 24.929 5.77098
C2 11.5348 27.1055 4.55613
C3 6.85255 24.0224 4.96486
C1 11.2917 3.87105 60.1192
C2 8.63455 3.78227 59.6056
C3 13.2129 6.20511 57.7837
BF4 6.62347 19.215 157.684
BF4 20.5371 6.0782 142.706
BF4 4.52548 24.2462 186.512
BF4 22.8227 26.5812 138.461
BF4 33.9791 18.457 97.5924
BF4 11.3864 8.35695 136.923
BF4 9.46653 0.961496 81.5755
BF4 7.94914 15.1676 142.213
BF4 28.163 6.68399 63.1139
BF4 27.3063 11.1189 57.4599
BF4 21.387 24.6166 76.6129
BF4 9.40099 27.8085 135.759
BF4 1.99234 13.1887 62.3729
BF4 21.0646 25.4868 55.6813
BF4 30.3754 5.45918 28.9038
BF4 18.394 10.5001 50.3795
BF4 25.7334 27.2131 83.9812
BF4 26.3481 10.7009 144.546
BF4 11.1834 14.5081 127.067
BF4 24.109 27.9309 146.559
BF4 33.4275 9.39402 88.3858
BF4 5.57565 11.2614 113.901
BF4 11.222 2.89732 89.71
BF4 32.1568 19.5931 114.192
BF4 29.5746 30.0893 135.125
BF4 21.2047 9.56806 108.154
BF4 0.189171 30.1317 83.6381
BF4 8.26539 29.7845 156.676
BF4 1.87829 25.3828 54.7856
BF4 0.281232 4.15298 106.178
BF4 15.3005 25.6442 66.0076
BF4 15.1089 0.526386 97.6422
BF4 16.122 4.28252 155.941
BF4 12.0441 25.203 158.665
BF4 6.90542 29.9173 120.039
BF4 15.4107 17.6639 186.687
BF4 31.3055 14.4097 72.6104
BF4 21.4692 30.2862 101.084
BF4 9.33025 1.08484 102.035
BF4 7.47697 24.7601 9.50558
BF4 18.4673 13.8666 146.395
BF4 10.2457 6.73028 77.7845
BF4 32.823 11.9783 45.0387
BF4 22.7932 8.30963 92.5072
BF4 17.1996 6.87339 43.95
BF4 5.11117 8.97436 108.104
BF4 34.5818 3.78881 71.833
BF4 19.7052 16.8544 38.0592
BF4 10.3171 20.7939 125.846
BF4 32.4547 0.344894 14.015
BF4 31.3254 23.416 107.373
BF4 29.4 27.6854 188.293
BF4 30.3032 28.6023 153.873
BF4 29.1854 18.3778 167.986
BF4 31.5093 16.1226 28.3458
BF4 28.8455 2.04609 127.891
BF4 23.6958 25.4678 94.436
BF4 7.44395 30.4727 185.325
BF4 15.2806 23.6952 110.097
BF4 13.9842 26.1433 72.3423
BF4 17.3036 16.4888 56.9891
BF4 13.0445 17.0283 72.2639
BF4 7.11416 11.8139 172.973
BF4 24.9599 26.2655 158.835
BF4 22.296 5.33892 100.552
BF4 20.4973 0.546244 89.9754
BF4 7.96344 7.27372 57.7755
BF4 32.2101 13.6462 155.247
BF4 24.1294 20.5068 12.7396
BF4 33.9821 17.6017 124.712
BF4 27.1574 24.0774 44.5794
BF4 0.113721 2.62666 167.32
BF4 14.6156 4.8221 73.6201
BF4 2.19798 7.84076 153.234
BF4 8.82093 4.76109 39.0834
BF4 16.4916 17.8421 132.356
BF4 9.72756 12.0214 93.4542
BF4 4.01709 24.9833 116.318
BF4 32.8138 26.0521 26.8591
BF4 32.4158 12.875 81.7616
BF4 12.1038 17.4382 26.197
BF4 27.4262 11.4794 100.994
BF4 17.2108 26.3053 132.031
BF4 31.6597 4.70436 121.737
BF4 25.1801 14.283 65.0275
BF4 25.7067 20.1408 79.6713
BF4 2.81069 15.968 86.7707
BF4 13.8025 20.2436 41.6946
BF4 22.713 12.7205 160.678
BF4 11.474 17.6879 114.169
BF4 18.7487 1.91147 118.243
BF4 25.2528 17.9403 130.24
BF4 29.2558 16.1335 87.422
BF4 3.35688 29.4734 65.4161
BF4 9.40215 20.606 134.462
BF4 16.6267 13.9802 85.2247
BF4 4.38941 30.3898 90.0061
BF4 21.4477 9.90878 62.3389
BF4 2.32416 24.0416 72.8711
BF4 18.8206 3.80657 132.127
BF4 4.99987 26.6496 42.3749
BF4 25.8745 4.54803 174.095
BF4 18.1372 7.73233 115.842
BF4 32.2605 11.3912 120.309
BF4 30.9081 23.1813 138.308
BF4 23.9512 14.3394 18.2776
BF4 14.6 2.50391 125.32
BF4 17.0978 29.4223 85.0445
BF4 5.81942 15.8786 98.8968
BF4 27.8476 15.7762 105.145
BF4 21.7656 19.8976 169.268
BF4 30.9093 25.6945 71.0612
BF4 13.5045 5.59532 52.8114
BF4 4.91759 20.0281 105.401
BF4 3.22397 4.11183 28.7516
BF4 21.0509 18.3997 68.9765
BF4 14.7815 13.5766 14.0763
BF4 7.33916 22.5871 56.1459
BF4 3.30397 27.109 100.924
BF4 10.7041 9.11405 67.7692
BF4 27.1633 11.6914 13.3327
BF4 28.5553 25.2414 61.6926
BF4 32.2163 7.07569 56.0056
BF4 17.2074 20.5845 77.4632
BF4 21.5934 16.5601 110.168
BF4 14.7901 28.6033 24.8277
BF4 33.3822 4.82676 100.179
BF4 23.2755 14.1638 119.235
BF4 30.4551 7.65638 114.41
BF4 4.05002 3.13656 116.369
BF4 2.29458 17.3519 50.1958
BF4 21.7 13.1746 153.069
BF4 27.7446 7.59919 76.8805
BF4 27.4682 3.49947 71.7792
BF4 17.3416 10.523 139.458
BF4 30.2457 7.83328 36.8012
BF4 1.81143 12.2219 71.591
BF4 2.15188 16.7739 78.0009
BF4 34.9425 11.2593 136.783
BF4 8.8794 3.00306 140.186
BF4 2.94355 10.3397 146.716
BF4 30.6565 10.8884 186.35
BF4 4.25209 20.6179 64.0468
BF4 29.4064 27.2147 123.156
Me 34.4937 12.8426 108.366
C 34.6576 12.8285 106.916
N 34.7953 12.8185 105.754
Me 22.2722 13.5799 26.9874
C 22.7855 12.2253 26.8057
N 23.1966 11.1399 26.6568
Me 0.539868 15.5837 92.8263
C 0.772148 14.8456 94.0643
N 0.950665 14.2553 95.0587
Me 6.37623 23.8896 65.9449
C 7.28991 23.2419 65.0083
N 8.02297 22.7192 64.261
Me 7.36203 5.19866 43.1431
C 8.48682 5.9782 43.6522
N 9.3861 6.61082 44.053
Me 12.4783 22.6689 155.384
C 12.6431 23.2008 154.035
N 12.7837 23.6214 152.952
Me 7.02708 1.1496 145.273
C 7.74419 30.6062 145.664
N 8.31964 29.6363 145.976
Me 33.897 21.3845 70.5778
C 32.5433 20.9526 70.9141
N 31.4564 20.6107 71.1805
Me 17.6568 4.72538 170.558
C 17.551 4.42354 169.133
N 17.4601 4.18386 167.991
Me 30.2202 20.5044 55.5689
C 30.3541 19.0964 55.9318
N 30.457 17.969 56.2276
Me 25.9377 14.1485 81.1457
C 26.245 12.8625 81.7654
N 26.4869 11.8339 82.2682
Me 10.0069 19.8869 71.861
C 8.78594 20.4285 72.4509
N 7.80684 20.865 72.9202
Me 26.874 10.8536 93.072
C 26.4867 11.2495 91.7213
N 26.1746 11.5682 90.6395
Me 25.1723 13.036 115.82
C 24.7663 11.6658 116.119
N 24.44 10.5681 116.36
Me 0.303123 6.348 54.3846
C 1.63005 6.26987 54.9889
N 2.69087 6.21031 55.4791
Me 13.5037 28.0678 57.7494
C 12.3076 27.2385 57.8626
N 11.3499 26.5722 57.9515
Me 34.0951 28.0628 142.954
C 32.9644 27.915 143.865
N 32.0588 27.795 144.596
Me 22.9032 1.15373 174.26
C 22.2562 2.20821 175.035
N 21.7422 3.05561 175.657
Me 28.0139 16.036 62.5611
C 28.9585 15.0491 62.0458
N 29.723 14.2648 61.6342
Me 0.92424 7.82324 149.402
C 0.395984 7.26073 148.163
N 35.3855 6.80915 147.172
Me 22.7944 16.2431 21.5439
C 22.9246 15.329 22.6749
N 23.0372 14.5943 23.5785
Me 7.66124 21.9637 189.441
C 7.02375 23.1758 189.947
N 6.50426 24.1464 190.343
Me 28.8728 24.0554 189.423
C 28.4332 22.6795 189.635
N 28.0775 21.5775 189.801
Me 1.23499 29.1267 165.955
C 2.55205 29.6805 165.655
N 3.60753 30.1256 165.417
Me 12.2557 4.98156 127.543
C 12.3176 5.37852 128.947
N 12.3631 5.68753 130.075
Me 20.0857 19.9087 120.491
C 20.6576 21.1363 119.946
N 21.1162 22.1168 119.501
Me 9.50025 9.91183 74.8557
C 9.72127 11.0556 75.7359
N 9.89579 11.9726 76.4413
Me 8.60668 3.56616 74.5992
C 7.57862 3.3333 73.5887
N 6.75075 3.13812 72.7849
Me 27.2447 20.6628 133.863
C 28.1647 20.4195 134.971
N 28.9005 20.2226 135.859
Me 11.5936 23.311 146.481
C 13.0006 23.2058 146.105
N 14.128 23.1179 145.805
Me 26.7184 10.2371 72.7339
C 27.9937 10.6872 72.1844
N 29.0155 11.0462 71.742
Me 21.2748 21.2422 31.3981
C 20.5727 21.9115 32.4893
N 20.0087 22.4483 33.3627
Me 4.10856 2.04187 167.84
C 5.00995 3.1631 168.09
N 5.7334 4.05942 168.296
Me 14.2009 26.263 144.114
C 15.3098 27.0899 144.581
N 16.2007 27.7481 144.959
Me 18.9775 27.3483 63.1772
C 17.6927 27.0651 62.5441
N 16.6621 26.8384 62.0385
Me 7.93942 26.9663 65.6217
C 8.93125 27.3799 66.6101
N 9.72467 27.7073 67.4054
Me 26.4415 3.14496 67.2822
C 25.2999 4.05505 67.2619
N 24.3873 4.78693 67.2419
Me 1.60148 0.480668 173.968
C 35.5728 0.434551 173.766
N 34.4145 0.393864 173.606
Me 30.0486 14.949 109.045
C 30.7678 14.1109 110
N 31.3428 13.4399 110.766
Me 16.0942 4.91193 159.784
C 17.3418 4.45819 160.391
N 18.3418 4.0975 160.88
Me 6.87291 18.4208 69.4177
C 7.58215 19.2608 68.4568
N 8.15107 19.9305 67.6843
Me 11.423 2.43905 71.398
C 11.3969 3.05384 70.074
N 11.3736 3.55067 69.015
Me 18.0388 10.2553 12.9421
C 18.2979 10.1935 11.5065
N 18.5081 10.1506 10.3562
Me 30.6531 17.7592 157.742
C 29.6197 18.7586 157.487
N 28.7926 19.5598 157.28
Me 0.672377 23.6955 77.154
C 34.7923 23.7497 77.8228
N 33.7549 23.7925 78.3623
Me 30.2639 26.6852 44.0455
C 29.6384 28.0045 44.0264
N 29.1379 29.0622 44.015
Me 26.0339 13.0963 86.9614
C 24.7372 13.5871 87.4192
N 23.7002 13.981 87.7917
Me 26.9967 6.55245 180.54
C 26.3096 6.86931 181.788
N 25.7527 7.13211 182.783
Me 4.57225 28.677 83.2213
C 3.60631 27.7836 82.589
N 2.83589 27.0648 82.0808
Me 13.0033 21.7065 112.146
C 13.4987 21.5598 113.511
N 13.8877 21.4424 114.608
Me 24.4187 29.8271 12.4518
C 23.699 30.1999 13.6662
N 23.1167 30.4938 14.6376
Me 10.9595 26.4426 155.053
C 9.5332 26.2342 154.822
N 8.38965 26.0642 154.642
Me 11.6941 10.9621 98.3596
C 10.6566 9.94271 98.2334
N 9.82702 9.12392 98.1322
Me 7.18091 27.0968 91.0155
C 6.98872 26.9417 92.4545
N 6.83889 26.8194 93.6086
Me 16.3758 19.9908 59.244
C 16.3044 18.9766 60.2919
N 16.2439 18.1647 61.1323
Me 33.3553 25.6282 168.867
C 33.7158 26.4106 167.688
N 34.0134 27.0356 166.745
Me 3.99539 4.76395 71.8365
C 3.49708 5.89055 72.6201
N 3.09558 6.79502 73.2443
Me 17.2645 26.7989 69.1779
C 18.4361 27.1612 69.9701
N 19.377 27.4504 70.6028
Me 6.61305 8.4856 170.851
C 6.29247 8.1414 172.234
N 6.03322 7.86483 173.341
Me 14.4648 14.9682 144.606
C 14.7636 15.8788 143.504
N 15.0024 16.6126 142.624
Me 31.7591 0.74122 89.7624
C 32.0405 1.22126 88.4125
N 32.2738 1.60708 87.3327
Me 27.1455 6.36872 50.4883
C 27.4053 6.36496 49.0515
N 27.6117 6.36666 47.8998
Me 11.1245 13.3101 71.5203
C 10.4529 13.4942 72.8035
N 9.91494 13.6462 73.8313
Me 8.40723 0.454255 27.3616
C 6.97081 0.200298 27.4247
N 5.81804 0.00511171 27.4708
Me 16.4757 21.6815 168.857
C 16.4905 23.1134 169.141
N 16.5089 24.2606 169.371
Me 18.7597 19.5553 108.609
C 18.346 20.4458 107.528
N 18.0115 21.1639 106.667
Me 31.5385 28.8371 54.0717
C 31.2084 27.4439 54.3575
N 30.9417 26.3292 54.5933
Me 20.8269 26.3162 159.093
C 19.718 27.2572 158.965
N 18.8342 28.0179 158.867
Me 11.6222 14.5649 90.3938
C 12.5577 15.2146 91.3076
N 13.3118 15.7284 92.0403
Me 6.79576 1.00246 40.3103
C 5.86923 1.96781 40.8941
N 5.12986 2.74051 41.3687
Me 29.1476 3.71386 124.193
C 28.0059 4.45208 123.661
N 27.0909 5.04661 123.239
Me 29.2456 3.49297 35.2453
C 28.5897 2.55454 36.1514
N 28.0623 1.80579 36.8796
Me 9.41044 15.0942 24.3461
C 9.14558 15.154 22.9116
N 8.92956 15.1995 21.7626
Me 6.47994 6.69289 89.8641
C 7.50444 7.09545 90.8234
N 8.32217 7.42215 91.594
Me 23.0991 22.9874 139.927
C 22.7065 21.6514 140.365
N 22.3841 20.5837 140.718
Me 34.2328 20.3266 48.0651
C 34.7832 20.8758 49.3006
N 35.2203 21.3133 50.2936
Me 22.705 1.80701 79.9794
C 22.52 3.25179 80.0804
N 22.3643 4.40848 80.1643
Me 7.9273 11.3325 11.1369
C 9.24922 11.5008 10.5398
N 10.3114 11.6369 10.0679
Me 13.3713 2.57563 131.351
C 14.05 1.28361 131.391
N 14.5994 0.251122 131.428
Me 11.9294 18.0896 49.3405
C 13.2509 17.5103 49.5626
N 14.3104 17.048 49.7431
Me 4.37554 16.0505 24.5462
C 3.21221 15.4518 25.1945
N 2.27608 14.9747 25.7094
Me 21.1248 26.8092 143.954
C 20.8657 26.121 142.693
N 20.6519 25.569 141.684
Me 19.8255 14.6457 12.357
C 20.5916 14.6216 11.1144
N 21.2062 14.6097 10.1187
Me 24.304 12.0747 169.527
C 23.3192 13.129 169.302
N 22.5292 13.9733 169.123
Me 20.6704 16.6425 185.448
C 20.3476 15.5104 184.585
N 20.0867 14.6004 183.897
Me 20.3356 26.4724 11.166
C 20.3854 27.8449 10.6715
N 20.4316 28.9448 10.276
Me 13.4051 4.44001 142.254
C 13.4306 4.414 143.714
N 13.4438 4.39733 144.884
Me 15.9488 14.0841 123.026
C 15.3784 14.1908 121.687
N 14.9175 14.2747 120.614
Me 23.2278 3.34275 76.2394
C 22.7393 4.66671 76.6144
N 22.3501 5.72982 76.9103
Me 21.6448 17.7103 56.5313
C 22.7002 18.3143 57.3395
N 23.5425 18.8058 57.9862
Me 13.6189 11.9969 138.384
C 14.0726 12.6953 139.583
N 14.4365 13.2588 140.542
Me 4.7787 26.7811 75.6981
C 3.67176 26.3735 76.5584
N 2.78406 26.0506 77.2487
Me 19.7996 23.383 36.5963
C 19.3373 24.0465 37.8118
N 18.9703 24.578 38.7873
Me 7.2273 21.9176 184.09
C 8.62821 21.5255 183.964
N 9.75276 21.216 183.87
Me 26.1706 22.1681 112.625
C 27.5029 21.5778 112.716
N 28.5731 21.1103 112.789
Me 15.3168 17.6676 85.5134
C 14.3003 17.2667 84.5454
N 13.4891 16.9406 83.7678
Me 27.0893 25.7105 130.196
C 26.6002 24.3642 130.478
N 26.2169 23.2816 130.703
Me 29.7881 11.5003 94.8708
C 29.8177 10.087 94.505
N 29.8443 8.95458 94.2116
Me 0.0648784 27.1536 24.742
C 0.265132 25.8853 24.0471
N 0.429242 24.8693 23.4904
Me 28.4266 23.2852 125.465
C 27.3561 22.7744 124.614
N 26.4992 22.3634 123.931
Me 27.4859 2.14966 43.0496
C 26.2708 2.91146 43.3235
N 25.2976 3.52047 43.5495
Me 32.334 0.986575 138.549
C 31.9884 1.12769 139.961
N 31.7075 1.24206 141.091
Me 4.75415 2.19241 123.069
C 5.13981 1.59786 124.345
N 5.44146 1.11945 125.37
Me 31.4173 11.4207 99.3285
C 31.8141 12.3534 100.379
N 32.133 13.1009 101.221
Me 32.2293 15.4913 94.3256
C 32.6457 14.2425 93.6941
N 32.9794 13.2392 93.1927
Me 11.4714 0.479384 187.845
C 11.3685 29.9984 188.741
N 11.2864 29.0759 189.456
Me 19.877 2.99105 82.694
C 20.5875 1.73276 82.9021
N 21.1602 0.726563 83.0705
Me 1.54884 22.4943 29.5905
C 1.07537 21.2669 30.2235
N 0.692369 20.2843 30.7304
Me 34.5985 8.03548 45.0806
C 0.189182 7.08027 44.6281
N 1.0019 6.31792 44.2712
Me 14.3711 6.88274 68.1245
C 15.7688 6.46502 68.1851
N 16.8892 6.13106 68.2315
Me 29.8343 3.38292 94.1747
C 29.6302 4.59818 93.3917
N 29.4629 5.57222 92.7655
Me 30.7008 7.5031 25.9293
C 29.8906 6.54438 25.1837
N 29.2414 5.77719 24.5846
Me 11.6872 27.8581 47.1202
C 10.7495 28.8192 46.5468
N 10.0031 29.5951 46.0887
Me 29.1939 1.63447 29.0125
C 27.9337 1.56739 28.2784
N 26.9198 1.51403 27.6968
Me 35.232 30.3972 129.138
C 33.8711 30.2578 129.648
N 32.7794 30.1411 130.053
Me 15.5303 2.21598 110.029
C 14.416 1.48461 109.433
N 13.5193 0.904819 108.955
Me 10.5891 22.9564 108.983
C 11.3888 23.7947 108.094
N 12.0279 24.4683 107.382
Me 20.9664 22.0775 93.5419
C 20.8461 21.5095 94.8815
N 20.7528 21.0541 95.9553
Me 12.5751 11.6117 142.72
C 12.7732 11.767 144.158
N 12.9352 11.8927 145.31
Me 4.70159 13.6797 144.47
C 4.93 14.957 145.138
N 5.1088 15.9806 145.675
Me 8.89547 13.1724 51.9352
C 9.35555 14.4995 51.5379
N 9.72116 15.5638 51.2183
Me 29.426 9.82161 54.5232
C 29.2473 10.7411 53.4032
N 29.1065 11.4774 52.5048
Me 6.90951 8.32195 122.801
C 5.59192 8.62299 123.353
N 4.53697 8.87331 123.793
Me 12.7569 -0.00926198 28.2518
C 14.1334 0.150452 28.7111
N 15.2345 0.276378 29.0864
Me 34.5378 14.2999 98.2435
C 33.2931 13.9186 97.5823
N 32.2968 13.6113 97.0509
Me 11.5135 8.42485 101.634
C 11.1822 9.47717 102.59
N 10.9128 10.3177 103.358
Me 9.78734 24.8957 72.4194
C 10.5898 23.7124 72.7152
N 11.2304 22.7627 72.9535
Me 3.35416 22.9398 36.9751
C 4.68536 23.1492 37.5373
N 5.75416 23.3169 37.9832
Me 5.19836 2.97553 184.715
C 5.27963 3.95684 183.637
N 5.34952 4.74111 182.772
Me 19.652 3.05956 125.905
C 19.5952 1.73589 125.291
N 19.5509 0.67252 124.805
Me 1.48026 24.436 133.562
C 2.13605 23.9179 134.76
N 2.66011 23.4993 135.718
Me 26.4884 16.7916 28.3884
C 25.3415 15.9195 28.6265
N 24.4259 15.2165 28.8188
Me 8.90704 26.2656 43.6878
C 8.3297 26.1646 45.025
N 7.86672 26.0877 46.0968
Me 31.1081 19.6446 62.9461
C 31.505 20.9259 63.5222
N 31.8198 21.9512 63.9892
Me 24.2418 17.116 122.803
C 23.1676 17.4697 121.88
N 22.3083 17.7583 121.14
Me 28.2356 13.7104 19.325
C 29.2765 14.3021 18.4901
N 30.1089 14.7798 17.8214
Me 33.2147 24.3 55.098
C 33.8349 22.9866 54.9521
N 34.3257 21.9303 54.8419
Me 22.1871 24.0422 116.321
C 22.7895 23.7267 115.029
N 23.271 23.4757 113.993
Me 29.7461 23.1939 115.777
C 30.9087 24.077 115.796
N 31.8384 24.7875 115.813
Me 24.2592 7.17804 143.906
C 24.8028 5.82342 143.866
N 25.236 4.73694 143.832
Me 8.39023 9.17694 64.1951
C 9.61491 9.86177 63.7914
N 10.5934 10.416 63.4682
Me 11.287 29.8838 184.176
C 11.8655 0.544016 183.986
N 12.3283 1.60806 183.836
Me 19.9206 5.29293 157.306
C 20.035 5.16627 155.856
N 20.1316 5.06549 154.695
Me 4.18242 18.6922 128.257
C 3.11758 17.9486 127.591
N 2.26558 17.3578 127.049
Me 27.8567 2.19344 177.845
C 26.6588 3.01851 177.97
N 25.699 3.68064 178.065
Me 6.60812 18.5344 123.569
C 6.1375 17.2985 124.188
N 5.75641 16.3103 124.685
Me 28.6296 30.4051 84.2692
C 28.563 0.48027 85.5249
N 28.5086 1.07259 86.5327
Me 14.7188 20.1365 118.786
C 16.1131 20.5416 118.632
N 17.2298 20.8696 118.511
Me 23.02 27.221 131.094
C 23.0674 28.658 131.347
N 23.1078 29.8091 131.551
Me 33.2443 24.0646 29.8567
C 34.0481 24.2845 31.055
N 34.6933 24.4604 32.0146
Me 31.3509 1.1217 144.629
C 31.7273 2.51797 144.428
N 32.0252 3.63844 144.271
Me 16.6115 16.3151 76.9158
C 17.3516 15.2835 77.6365
N 17.9437 14.4578 78.2167
Me 3.02083 12.4341 110.313
C 2.24965 13.6163 109.939
N 1.63331 14.5653 109.641
Me 32.0154 12.2415 158.815
C 32.9023 11.0838 158.747
N 33.6132 10.1564 158.688
Me 17.8814 0.437133 101.983
C 16.9218 1.27266 102.698
N 16.147 1.93532 103.272
Me 23.6733 29.7639 65.9974
C 24.7344 28.8347 66.3741
N 25.5831 28.0916 66.6844
Me 23.2982 1.8549 93.0365
C 22.063 2.38976 93.6017
N 21.0724 2.81841 94.053
Me 7.28108 11.5876 99.0306
C 7.22561 10.3925 99.8676
N 7.17718 9.43406 100.537
Me 23.2532 23.1628 157.786
C 22.265 23.8954 156.999
N 21.4714 24.4829 156.371
Me 10.7848 7.86266 180.147
C 10.6295 7.82802 178.695
N 10.5124 7.79978 177.531
Me 29.3179 30.1806 111.775
C 30.6659 29.649 111.595
N 31.7494 29.2316 111.449
Me 27.675 23.9065 52.6493
C 29.0233 23.3482 52.6944
N 30.1032 22.899 52.7249
Me 15.627 22.563 178.608
C 14.9668 21.9259 179.743
N 14.4364 21.4187 180.655
Me 31.3699 28.5418 161.303
C 31.1879 27.3081 160.544
N 31.0485 26.3178 159.937
Me 24.0047 14.7823 75.7074
C 24.0575 13.9356 76.8959
N 24.1006 13.2596 77.8502
Me 14.2767 15.7757 99.0292
C 14.1445 14.3553 99.3398
N 14.0433 13.2145 99.5795
Me 18.3533 23.7356 117.194
C 18.6213 23.2322 115.85
N 18.836 22.8287 114.772
Me -0.0140922 21.1052 172.176
C 0.405904 20.3431 173.349
N 0.738742 19.7275 174.286
Me 34.3089 22.526 81.1183
C 0.170654 21.8225 81.0745
N 1.19457 21.2576 81.0382
Me 20.3338 15.7685 123.832
C 19.2243 15.5283 124.751
N 18.3333 15.3353 125.484
Me 14.0795 10.5983 105.02
C 14.6788 10.527 103.69
N 15.1589 10.4676 102.625
Me 18.4015 30.0092 121.519
C 19.832 29.7308 121.43
N 20.978 29.5061 121.356
Me 4.72249 30.6403 93.8763
C 4.11341 0.914129 94.812
N 3.62509 1.6723 95.5574
Me 23.5838 23.4382 9.7768
C 22.6416 24.3241 9.09894
N 21.8843 25.0368 8.56246
Me 27.4751 14.5994 90.5047
C 28.6697 14.3 91.2889
N 29.6284 14.0549 91.9135
Me 7.28497 0.119268 44.1252
C 7.97732 1.40414 44.0867
N 8.53334 2.43308 44.0528
Me 4.40574 20.786 25.105
C 3.76643 21.2966 26.3138
N 3.25247 21.6998 27.284
Me 15.8307 17.9825 91.4569
C 15.9251 18.5806 90.1284
N 15.9987 19.0555 89.0616
Me 7.25921 17.8194 145.289
C 7.94356 19.1068 145.356
N 8.48925 20.1404 145.405
Me 26.5334 24.4975 143.322
C 26.0454 23.2079 142.842
N 25.6584 22.1708 142.463
Me 21.7248 8.19391 189.513
C 21.6982 8.27753 188.056
N 21.6797 8.34423 186.888
Me 12.1908 17.7675 15.2458
C 11.6587 17.831 16.6039
N 11.2349 17.8799 17.6934
Me 1.20724 21.9786 44.9869
C 0.130749 21.0344 44.7018
N 34.6845 20.2801 44.4664
Me 4.69297 24.7296 57.9393
C 3.74935 25.7375 58.4134