11738
Atoms. Timestep: 0
C1 13.7243 9.431 109.766
C2 12.4463 7.695 111.404
C3 15.8803 7.872 107.023
C1 27.2393 25.794 126.209
C2 26.9603 27.99 124.65
C3 26.7423 26.327 129.96
C1 10.6443 6.994 127.993
C2 13.2023 7.869 128.141
C3 9.1423 6.789 124.486
C1 25.2183 22.917 77.4974
C2 27.9093 23.209 77.4444
C3 23.5323 23.52 80.8744
C1 12.9753 19.973 137.133
C2 14.6493 22.072 137.486
C3 11.5013 19.575 133.63
C1 33.3233 7.745 125.721
C2 33.8533 10.299 126.446
C3 30.0963 7.195 123.751
C1 10.9323 15.619 67.3834
C2 8.5623 15.126 66.1714
C3 13.3463 17.893 65.4844
C1 26.1063 16.487 129.268
C2 24.0873 15.372 130.686
C3 25.8433 16.199 125.466
C1 12.8353 23.182 99.0224
C2 15.2403 21.94 98.9924
C3 12.9173 26.988 99.3574
C1 29.3683 12.859 80.1094
C2 30.0973 13.691 82.5814
C3 32.2213 12.181 77.6594
C1 28.3453 26.741 65.4604
C2 28.3343 24.057 65.8114
C3 24.9693 28.341 64.6584
C1 1.9363 14.598 104.32
C2 0.977299 12.306 103.244
C3 3.1523 17.236 101.836
C1 6.2693 20.72 103.63
C2 7.7383 21.904 105.571
C3 6.5293 22.272 100.148
C1 31.4103 4.912 128.029
C2 33.3873 5.034 126.182
C3 29.9543 1.444 128.701
C1 34.3253 33.067 128.608
C2 34.4363 30.389 128.227
C3 31.1453 34.397 130.257
C1 30.8863 17.447 128.789
C2 31.9413 19.465 127.325
C3 27.8113 18.324 130.882
C1 18.7163 30.459 68.4044
C2 18.4733 28.941 66.1754
C3 15.4733 31.918 69.8034
C1 26.6413 21.34 130.738
C2 24.7193 21.874 128.907
C3 25.6293 21.75 134.4
C1 33.3603 19.625 138.722
C2 33.1353 18.038 140.904
C3 32.4793 23.309 139.229
C1 28.8723 11.937 127.39
C2 27.4583 14.154 128.032
C3 29.5223 11.382 123.666
C1 11.6743 21.22 126.824
C2 10.6453 23.512 125.814
C3 9.4703 19.351 129.324
C1 28.3243 21.631 105.452
C2 28.3113 23.132 103.199
C3 29.8363 18.136 105.131
C1 4.3413 26.051 106.378
C2 3.9873 23.425 106.936
C3 7.0073 26.866 103.765
C1 8.2153 3.607 79.4554
C2 5.6173 2.86 79.3024
C3 9.0443 6.264 82.0734
C1 22.9363 11.227 136.626
C2 20.9453 10.481 134.95
C3 21.8433 12.636 140.006
C1 13.2243 5.993 73.2634
C2 11.3483 5.646 75.1844
C3 12.7573 9.03 70.9924
C1 34.3343 20.161 70.9444
C2 32.2423 19.019 72.2294
C3 33.7393 21.114 67.2914
C1 9.6663 10.57 61.1104
C2 10.3743 10.526 63.7234
C3 6.0693 11.625 60.3654
C1 15.5153 24.896 91.9774
C2 14.7893 26.437 89.8734
C3 18.0623 26.428 94.3784
C1 19.8213 11.65 124.631
C2 20.7983 9.876 126.427
C3 20.2723 10.73 120.95
C1 21.8623 27.544 76.6024
C2 23.1773 29.049 74.7754
C3 20.1833 24.379 75.2724
C1 10.2333 26.421 99.5474
C2 8.0983 27.893 98.7704
C3 10.1583 22.722 98.5904
C1 6.0113 2.518 67.0754
C2 5.8583 5.058 66.1514
C3 2.7243 0.957 68.2444
C1 12.6163 32.035 131.637
C2 11.2313 34.358 131.766
C3 14.3313 30.923 134.866
C1 32.0653 24.497 78.7014
C2 30.9003 26.039 80.5984
C3 30.6063 24.779 75.1814
C1 22.5613 32.451 130.826
C2 23.1153 31.251 133.189
C3 25.1963 32.058 128.087
C1 20.0523 23.655 89.1404
C2 20.4353 26.244 89.8374
C3 17.6623 23.039 86.2234
C1 26.6443 9.253 100.62
C2 27.1543 10.716 102.84
C3 26.6033 5.46 101.083
C1 4.9183 22.557 65.1114
C2 3.6313 20.221 65.5794
C3 3.8623 24.453 61.9664
C1 17.0243 10.84 131.536
C2 17.4163 9.299 133.727
C3 19.7263 10.642 128.841
C1 7.1743 24.462 75.3594
C2 9.7433 24.685 74.5314
C3 5.6873 27.545 77.0584
C1 13.9023 27.445 67.2894
C2 13.3783 26.78 69.8614
C3 16.6053 25.385 65.5414
C1 24.7913 24.947 107.341
C2 27.3363 24.966 108.265
C3 24.0833 22.58 104.426
C1 13.8903 10.441 101.419
C2 16.0073 10.837 99.7794
C3 14.7083 9.259 104.96
C1 7.1093 17.654 84.8604
C2 7.7273 18.731 82.4544
C3 3.5633 18.306 86.1294
C1 18.6393 28.266 76.8264
C2 18.4093 30.312 78.5834
C3 18.1123 29.148 73.1454
C1 20.1433 14.453 85.7014
C2 21.2953 14.527 83.2524
C3 18.9693 11.02 86.9004
C1 33.4263 16.295 91.6994
C2 32.5033 14.255 93.2224
C3 34.3383 19.502 93.5664
C1 25.3323 6.436 71.6234
C2 23.5493 5.663 69.7384
C3 27.8833 9.067 70.5394
C1 0.979299 27.284 108.643
C2 3.2863 26.539 109.847
C3 0.981299 27.208 104.822
C1 6.4123 17.323 137.265
C2 5.5833 18.977 139.243
C3 4.6463 17.719 133.899
C1 31.8323 28.725 61.4024
C2 33.8113 30.469 62.0144
C3 29.0913 30.043 59.0894
C1 21.9743 28.775 80.5714
C2 23.5323 29.957 82.4434
C3 22.1853 30.238 77.0474
C1 28.9643 27.911 126.532
C2 28.6033 29.065 128.954
C3 28.9153 30.271 123.526
C1 29.8133 30.505 126.859
C2 31.2383 29.418 124.83
C3 30.9073 29.529 130.388
C1 17.3233 25.127 128.711
C2 15.9723 26.729 130.425
C3 15.7883 24.717 125.236
C1 7.5373 20.756 74.7534
C2 7.8133 19.053 76.8404
C3 4.8543 19.844 72.1894
C1 4.8253 31.652 127.66
C2 4.5533 31.873 124.976
C3 1.5943 31.152 129.639
C1 6.1443 2.639 130.788
C2 7.7993 3.092 132.883
C3 5.7523 5.519 128.307
C1 26.3343 6.349 133.935
C2 25.2773 8.59 135.027
C3 23.8663 3.537 133.158
C1 29.6523 34.357 105.34
C2 29.1163 31.983 104.155
C3 29.6993 34.353 109.161
C1 6.2013 25.896 85.5644
C2 4.0913 27.004 84.2784
C3 5.8013 22.239 86.6004
C1 23.0033 17.44 123.853
C2 21.6663 17.318 126.204
C3 21.8183 20.106 121.385
C1 7.3123 4.371 101.924
C2 8.0193 5.585 104.238
C3 7.3603 6.566 98.7964
C1 29.7613 11.974 120.991
C2 31.3913 9.828 121.254
C3 29.8063 14.477 123.877
C1 29.7033 14.762 99.3144
C2 31.2843 13.236 97.7324
C3 30.1403 14.287 103.08
C1 19.0563 23.376 112.979
C2 19.3063 21.014 114.278
C3 17.8713 23.179 109.352
C1 29.3133 9.55 86.9244
C2 28.3103 11.697 88.2344
C3 27.3943 6.274 87.3584
C1 2.6773 22.271 60.3494
C2 4.9143 23.2 59.1384
C3 1.5423 24.174 63.4624
C1 1.6583 23.068 138.136
C2 2.3153 22.899 140.758
C3 4.5753 23.452 135.698
C1 13.2573 23.383 123.371
C2 14.2213 21.465 125.022
C3 14.4893 23.259 119.756
C1 18.1323 17.294 80.7444
C2 16.5033 17.151 82.9024
C3 21.8103 16.459 81.3614
C1 5.1253 15.427 108.119
C2 3.2043 13.785 109.09
C3 4.8323 19.11 109.092
C1 24.7573 28.558 92.3664
C2 23.7423 27.39 94.5874
C3 22.8163 27.972 89.1274
C1 2.4523 6.457 95.9474
C2 1.0183 8.535 96.9264
C3 3.0093 6.438 92.1664
C1 8.2023 24.822 67.4664
C2 10.4353 26.175 66.7494
C3 5.0993 26.946 68.1474
C1 21.1433 24.19 84.7704
C2 22.1543 23.25 87.0994
C3 18.5163 26.948 85.0744
C1 16.9963 22.074 131.156
C2 17.7763 21.803 128.577
C3 19.6853 23.245 133.606
C1 6.8753 27.902 121.264
C2 7.7723 29.631 123.145
C3 3.2843 28.434 120.072
C1 11.6633 25.235 71.3644
C2 8.9733 24.931 71.3584
C3 13.4133 24.745 68.0024
C1 25.4493 30.865 68.3634
C2 23.8043 29.082 67.1614
C3 28.8523 29.526 69.4724
C1 27.2443 29.798 104.101
C2 26.1943 28.885 101.779
C3 25.0793 29.341 107.216
C1 15.1213 11.857 114.86
C2 15.8833 11.131 112.365
C3 12.2963 14.421 115.071
C1 4.0353 6.92 119.004
C2 1.7623 8.195 118.272
C3 6.4683 8.931 121.158
C1 10.5203 33.369 77.1824
C2 12.0173 31.464 78.3904
C3 9.7513 32.803 73.4824
C1 29.4743 27.831 115.365
C2 30.9653 25.572 115.423
C3 26.1173 27.672 117.185
C1 5.7383 33.301 71.7804
C2 8.3623 33.257 71.1164
C3 4.8003 31.525 75.0314
C1 10.5603 13.761 72.4034
C2 11.0393 11.255 73.3114
C3 7.5673 14.151 70.0594
C1 20.6083 8.046 96.2584
C2 20.9563 5.531 95.3174
C3 17.3143 9.744 95.3284
C1 8.2533 29.426 135.051
C2 10.2103 27.565 135.248
C3 8.7863 32.151 132.427
C1 24.3203 26.765 115.3
C2 23.8943 24.922 113.363
C3 23.5443 25.652 118.873
C1 21.8863 32.093 74.1954
C2 23.1763 32.962 71.9784
C3 18.7453 34.034 75.1774
C1 8.4063 21.759 122.158
C2 9.4093 22.189 119.68
C3 6.3453 18.572 122.603
C1 0.978299 7.158 136.001
C2 2.7823 7.582 134.027
C3 2.3683 7.113 139.561
C1 1.8973 10.85 89.7304
C2 3.2563 8.664 90.5714
C3 4.0253 13.798 88.5544
C1 19.4383 8.573 103.161
C2 18.2603 10.31 104.873
C3 20.9053 5.411 104.726
C1 25.6683 13.776 76.6614
C2 27.1893 11.606 76.1064
C3 24.4683 14.103 80.2754
C1 16.5853 2.148 90.9364
C2 17.0833 4.737 90.3204
C3 12.9023 1.14 91.0944
C1 34.2853 22.197 123.317
C2 32.3743 21.445 121.553
C3 33.4203 21.763 127.014
C1 6.4263 23.63 71.2504
C2 5.8173 24.165 68.6674
C3 7.8423 26.543 73.2784
C1 13.8243 10.428 96.1824
C2 13.4753 11.171 98.7634
C3 12.9073 13.039 93.5474
C1 20.0803 27.423 121.242
C2 20.9093 29.455 119.656
C3 22.8353 25.285 122.805
C1 17.2343 23.102 119.705
C2 16.1863 25.373 118.667
C3 20.9823 22.586 119.166
C1 33.4783 26.7 109.981
C2 32.3403 27.609 112.264
C3 31.1633 24.836 107.58
C1 3.5273 20.349 127.53
C2 1.4993 21.742 128.66
C3 6.7723 20.185 129.541
C1 17.5443 32.983 83.4634
C2 17.1333 34.358 85.7594
C3 15.8073 34.359 80.3504
C1 30.7523 15.083 62.6684
C2 29.2033 17.301 62.7764
C3 31.8483 13.97 59.1814
C1 23.1743 9.588 82.6884
C2 21.4943 7.469 82.8344
C3 25.3063 9.823 79.5254
C1 19.5643 25.097 138.912
C2 17.0473 24.95 137.924
C3 20.7603 22.067 140.911
C1 12.6313 21.674 135
C2 11.0293 23.15 133.393
C3 12.1533 22.172 138.759
C1 27.1583 22.303 120.043
C2 29.5153 21.099 120.615
C3 25.6393 21.481 116.635
C1 33.3733 16.823 73.4384
C2 34.3373 14.442 74.2954
C3 33.7703 19.759 75.8514
C1 13.0413 10.097 126.519
C2 15.7433 10.265 126.554
C3 11.4513 9.347 123.126
C1 9.2443 16.911 81.0464
C2 9.6183 17.071 83.7234
C3 7.0923 19.657 79.4864
C1 5.6753 31.131 100.009
C2 5.5873 28.952 98.4034
C3 8.7703 31.455 102.226
C1 6.1923 21.532 89.2284
C2 8.7313 21.657 88.2964
C3 4.7133 18.028 89.6024
C1 25.4233 26.282 101.339
C2 26.1923 24.187 99.8064
C3 22.0613 25.916 103.117
C1 3.2403 10.997 64.4184
C2 4.1343 13.414 65.2484
C3 0.979299 11.014 61.3364
C1 4.9983 3.155 134.386
C2 5.1443 0.999 132.756
C3 5.1743 2.438 138.135
C1 13.4653 32.895 83.2374
C2 13.0413 30.753 84.8394
C3 14.3913 32.12 79.6124
C1 33.0353 15.068 110.065
C2 34.3413 17.313 109.299
C3 29.4263 14.732 108.856
C1 29.1033 23.013 126.234
C2 27.2833 21.922 127.917
C3 28.3313 22.708 122.504
C1 12.9113 29.488 96.8684
C2 13.4053 31.982 97.7994
C3 15.7603 27.822 94.9414
C1 23.0903 27.251 69.0854
C2 22.3433 26.504 66.5924
C3 25.9833 25.288 70.6284
C1 18.0123 10.744 135.99
C2 15.4383 10.572 135.169
C3 18.9073 13.821 138.072
C1 17.3033 23.506 116.985
C2 14.6853 22.818 117.048
C3 18.5923 25.476 119.995
C1 14.2083 12.629 65.8504
C2 12.1263 12.608 64.1204
C3 14.3073 15.542 68.3214
C1 7.3223 8.235 104.017
C2 5.6213 9.296 105.837
C3 10.3603 6.398 105.43
C1 13.3273 10.322 93.4804
C2 11.4483 11.34 95.1424
C3 12.0293 8.712 90.2664
C1 26.7183 17.641 91.3484
C2 28.6423 15.896 92.1134
C3 23.1243 16.65 92.1894
C1 4.3353 25.688 117.048
C2 5.5373 23.344 116.421
C3 1.2313 25.44 119.263
C1 23.5613 2.914 78.6904
C2 25.7073 2.357 77.1364
C3 23.3373 0.997 81.9884
C1 7.2573 28.274 79.5264
C2 6.2433 28.717 81.9974
C3 9.8743 25.502 79.2594
C1 12.8523 16.564 129.405
C2 12.2833 18.479 131.232
C3 14.1303 17.8 126.022
C1 31.7643 26.639 122.422
C2 33.2253 24.997 124.004
C3 28.0513 25.793 122.103
C1 21.3053 29.923 122.336
C2 23.8553 30.552 121.678
C3 20.8713 27.642 125.371
C1 23.1443 8.306 126.525
C2 23.1223 10.806 127.563
C3 24.2883 8.009 122.891
C1 31.0153 22.053 82.4514
C2 29.3473 23.931 81.4394
C3 31.1053 21.767 86.2604
C1 5.7533 3.759 72.2904
C2 3.1603 3.224 71.7214
C3 7.6743 1 74.1074
C1 21.0253 23.003 63.8904
C2 23.3823 21.715 64.2284
C3 20.4863 24.648 60.4844
C1 15.5973 30.013 96.5964
C2 14.9153 30.169 99.2114
C3 13.1093 28.216 94.3194
C1 28.8563 11.926 69.9744
C2 28.8483 13.654 67.8904
C3 28.5343 13.485 73.4484
C1 12.0853 29.004 138.412
C2 11.8983 30.083 140.889
C3 14.5613 26.12 138.021
C1 4.0943 12.672 139.821
C2 4.5043 14.82 141.418
C3 3.3373 13.431 136.153
C1 5.9873 7.525 92.2244
C2 6.8113 7.709 89.6514
C3 8.6283 8.254 94.8874
C1 7.0923 16.49 87.5104
C2 5.3533 15.415 85.7344
C3 6.0903 16.256 91.1904
C1 8.2173 25.365 115.28
C2 6.7533 27.365 116.369
C3 6.4313 23.196 112.69
C1 3.7783 4.236 103.221
C2 4.0613 3.079 105.653
C3 0.977299 6.817 102.907
C1 20.3543 27.511 133.84
C2 22.3253 28.727 132.438
C3 18.3743 29.743 136.229
C1 6.6713 28.267 91.0794
C2 5.2833 30.573 91.3754
C3 5.0803 25.629 88.8184
C1 22.3223 13.651 129.467
C2 21.4533 11.477 130.827
C3 24.0553 12.961 126.132
C1 12.2323 8.829 118.704
C2 13.4543 6.491 119.313
C3 8.7623 8.546 117.128
C1 24.2593 19.734 85.2374
C2 24.6673 21.044 82.9034
C3 25.8663 16.279 85.5254
C1 28.0123 29.011 61.3984
C2 28.7233 27.224 59.4934
C3 24.2753 29.254 62.1594
C1 25.5373 8.708 118.873
C2 24.7983 9.756 116.489
C3 25.3953 4.899 119.148
C1 1.0433 2.736 86.6454
C2 0.975299 5.362 87.3034
C3 4.4103 0.984 87.0904
C1 10.4673 12.942 85.0914
C2 10.4863 10.806 83.4274
C3 10.3873 12.156 88.8304
C1 17.7753 15.317 72.0044
C2 16.8803 15.655 69.4714
C3 21.5393 15.72 72.5204
C1 9.8253 10.666 131.53
C2 9.9673 8.549 133.213
C3 10.6353 9.952 127.865
C1 11.8323 5.905 94.0054
C2 13.2833 7.555 92.4224
C3 12.3253 6.332 97.7704
C1 7.4743 14.932 102.321
C2 9.9863 14.23 101.596
C3 7.1713 17.046 105.49
C1 15.7503 22.015 93.9634
C2 17.0533 19.696 94.4674
C3 14.8263 22.659 90.3114
C1 22.3163 27.91 98.1284
C2 21.7663 26.368 100.284
C3 24.0533 31.238 98.8454
C1 7.5293 23.921 80.8954
C2 7.1623 25.618 78.8174
C3 8.5633 25.523 84.2074
C1 24.9083 14.601 137.893
C2 24.3313 12.123 138.82
C3 22.2203 16.253 135.736
C1 5.9963 33.557 78.9504
C2 3.6163 32.931 77.8214
C3 6.0203 33.851 82.7604
C1 28.7303 32.593 95.0724
C2 31.0973 31.655 94.1504
C3 28.8313 34.358 98.4604
C1 9.8603 2.79 115.941
C2 11.7473 1 115.187
C3 6.2293 1.701 115.46
BF4 17.3923 1.72 106.666
BF4 26.5463 28.393 99.0964
BF4 7.9203 20.532 98.5354
BF4 31.6613 24.571 133.028
BF4 5.4603 4.358 124.55
BF4 11.5063 17.306 125.137
BF4 14.7933 23.615 101.127
BF4 26.2123 10.155 89.4144
BF4 20.4733 10.186 82.5554
BF4 17.2673 21.18 65.9504
BF4 27.8353 6.1 137.763
BF4 28.0033 17.814 127.122
BF4 14.1913 25.584 64.2394
BF4 29.0473 6.114 74.7014
BF4 1.2103 28.752 123.128
BF4 2.5773 18.302 60.3104
BF4 4.5093 33.198 101.398
BF4 29.8093 2.464 126.151
BF4 10.2913 14.332 69.7274
BF4 13.0223 11.778 77.0664
BF4 13.1633 15.172 65.8394
BF4 24.5933 7.802 99.4444
BF4 5.4033 22.219 128.27
BF4 2.6943 3.555 137.313
BF4 11.2653 12.436 59.8774
BF4 19.3813 12.709 82.4804
BF4 26.8403 32.385 122.738
BF4 5.9773 30.212 120.04
BF4 7.7633 12.216 102.641
BF4 31.6583 6.684 91.2644
BF4 32.2913 8.582 97.3764
BF4 25.9593 23.654 114.664
BF4 22.6963 8.566 135.974
BF4 18.1773 19.84 79.6454
BF4 0.968299 9.009 123.001
BF4 14.0603 30.875 111.351
BF4 20.4593 2.839 112.687
BF4 18.0273 26.086 75.2654
BF4 16.1763 16.654 107.459
BF4 28.3173 13.616 111.474
BF4 10.1753 3.659 76.9764
BF4 23.0753 22.095 70.8954
BF4 29.1573 24.678 110.312
BF4 4.1603 5.232 81.5124
BF4 16.8473 12.516 64.3554
BF4 7.4733 5.86 95.5914
BF4 16.9323 17.994 135.517
BF4 22.8933 12.482 96.2354
BF4 18.7583 20.496 139.869
BF4 33.4773 27.889 128.851
BF4 10.5313 28.927 115.733
BF4 13.5643 22.304 78.2494
BF4 11.2953 22.158 76.7044
BF4 15.3433 20.877 96.4344
BF4 33.7563 32.938 60.6944
BF4 3.8233 25.838 64.3424
BF4 5.9913 7.337 69.1434
BF4 5.4043 27.538 61.1924
BF4 31.5533 5.94 78.1394
BF4 14.1043 19.232 94.5894
BF4 25.8483 8.955 82.0784
BF4 20.3683 31.595 70.2874
BF4 23.2113 24.42 93.4924
BF4 10.8103 22.129 123.443
BF4 12.7603 5.7 86.0664
BF4 23.6483 11.109 106.86
BF4 2.9423 20.529 97.1044
BF4 28.5723 18.12 118.535
BF4 29.3493 22.039 141.418
BF4 11.3773 23.435 69.3054
BF4 8.2533 32.482 110.767
BF4 28.2263 15.024 61.5834
BF4 22.6863 9.367 132.973
BF4 9.4173 16.835 77.1034
BF4 14.8713 4.975 76.9764
BF4 6.2743 13.464 114.051
BF4 30.4083 19.211 87.3794
BF4 1.2583 27.227 131.207
BF4 28.4533 3.714 98.3854
BF4 5.6023 7.573 72.2254
BF4 23.9003 11.288 84.7244
BF4 4.3153 27.301 125.697
BF4 1.0093 3.328 89.3294
BF4 3.1073 6.768 128.436
BF4 5.7533 1.867 110.903
BF4 18.9253 29.801 131.018
BF4 32.1273 11.608 119.285
BF4 29.1563 5.674 107.637
BF4 20.3353 3.043 107.72
BF4 6.3783 24.876 64.8764
BF4 15.5823 34.04 59.7954
BF4 34.3403 32.093 110.55
BF4 28.9143 0.999 80.2264
BF4 5.8533 7.929 112.244
BF4 31.6723 18.382 92.6464
BF4 14.8263 30.31 132.098
BF4 22.9013 34.074 104.173
BF4 1.0653 30.566 96.9824
BF4 30.3163 25.775 112.586
BF4 7.0353 17.179 97.8504
BF4 34.3493 18.951 81.9354
BF4 10.2453 4.771 89.1004
BF4 21.3203 15.953 100.044
BF4 31.6323 18.472 66.7544
BF4 13.6573 29.164 74.3604
BF4 1.0903 17.846 73.1154
BF4 3.5113 16.349 135.996
BF4 1.1593 22.603 103.517
BF4 24.1373 21.813 68.3744
BF4 28.3293 28.623 112.994
BF4 23.8823 3.205 70.9234
BF4 18.3173 29.952 98.6204
BF4 27.6983 13.841 90.3544
BF4 17.2943 14.414 108.97
BF4 6.9173 13.491 64.6934
BF4 1.0743 1.342 137.512
BF4 6.4773 5.64 80.0924
BF4 31.1653 10.18 112.805
BF4 34.3373 27.878 98.0814
BF4 5.6873 23.079 93.0744
BF4 15.5163 8.425 119.648
BF4 16.4363 9.151 109.393
BF4 3.8843 19.433 116.511
BF4 18.4893 32.976 120.045
BF4 20.6233 14.491 65.7314
BF4 4.9903 7.265 138.123
BF4 3.8253 11.744 110.959
BF4 25.4953 27.485 120.286
BF4 9.5393 9.03 105.435
BF4 16.6513 27.342 67.4734
BF4 2.4583 0.997 108.721
BF4 14.3423 15.733 112.54
BF4 29.1473 26.126 77.2894
BF4 12.1733 14.685 124.64
BF4 3.5063 32.85 105.512
BF4 1.4823 34.292 80.9094
BF4 25.4583 26.535 122.866
BF4 10.1203 19.318 120.984
BF4 16.8103 33.101 78.1214
BF4 16.0953 20.697 140.524
BF4 17.8413 5.406 65.8974
BF4 23.1033 20.172 74.0274
BF4 24.3443 16.014 97.3834
BF4 6.9743 27.16 106.5
BF4 32.2663 16.204 119.161
BF4 5.5113 3.502 87.0194
BF4 3.4333 8.741 65.9774
BF4 30.1873 32.274 137.405
BF4 9.1273 3.803 94.5404
BF4 12.0353 18.239 110.203
BF4 23.7913 21.949 140.308
BF4 5.5433 19.016 67.1464
BF4 2.6183 34.218 62.2124
BF4 5.1573 26.201 74.6754
BF4 28.7653 25.785 117.058
BF4 25.1063 18.854 62.4974
BF4 11.3753 27.667 74.6924
BF4 24.9183 14.904 59.1854
BF4 14.9613 14.124 110.397
BF4 33.5513 7.419 122.992
BF4 12.6323 32.504 136.342
BF4 22.8073 28.663 108.914
BF4 2.8083 15.984 84.8634
BF4 26.9173 1.038 126.299
BF4 1.0553 32.261 94.0944
BF4 7.6293 11.492 132.965
BF4 21.6263 2.79 131.625
BF4 15.1593 5.831 105.326
Me 0.986299 9.758 76.5254
C 0.977299 9.768 75.0654
N 0.970299 9.775 73.8954
Me 19.3363 16.689 73.8994
C 19.3983 17.44 72.6494
N 19.4483 18.042 71.6474
Me 20.4003 6.815 60.6204
C 20.5393 6.757 62.0724
N 20.6513 6.711 63.2354
Me 18.3843 25.696 106.577
C 17.1963 25.126 107.206
N 16.2443 24.669 107.71
Me 16.5413 18.142 121.544
C 16.5923 18.109 123.003
N 16.6333 18.082 124.172
Me 10.1983 7.456 113
C 9.1753 8.334 112.439
N 8.3563 9.038 111.989
Me 13.2303 25.761 87.6974
C 11.9963 26.537 87.6234
N 11.0073 27.159 87.5634
Me 30.9913 15.974 133.787
C 30.6743 15.188 134.976
N 30.4213 14.558 135.929
Me 27.2163 19.098 78.8394
C 27.1003 18.935 77.3924
N 27.0083 18.804 76.2334
Me 28.1913 26.373 80.2634
C 28.3043 26.46 81.7164
N 28.3953 26.53 82.8814
Me 32.9513 31.428 118.687
C 33.5783 30.291 118.019
N 34.0813 29.38 117.484
Me 34.1343 13.97 98.4764
C 34.2133 13.937 97.0194
N 34.2773 13.91 95.8514
Me 12.8863 17.362 86.4574
C 11.5153 17.861 86.5094
N 10.4163 18.262 86.5504
Me 26.2113 13.64 132.079
C 25.4893 13.816 133.336
N 24.9113 13.957 134.343
Me 24.1673 30.252 79.7774
C 24.5643 30.963 78.5654
N 24.8813 31.532 77.5944
Me 5.9823 14.393 128.604
C 6.1083 13.557 129.795
N 6.2103 12.888 130.749
Me 25.6223 31.942 63.2764
C 25.2883 31.895 64.6964
N 25.0203 31.857 65.8354
Me 34.3373 19.471 87.9384
C 34.0613 20.664 87.1434
N 33.8403 21.62 86.5074
Me 22.6263 6.223 72.3744
C 21.5003 5.392 71.9584
N 20.5973 4.726 71.6254
Me 27.7293 2.451 69.2144
C 28.7033 3.537 69.1534
N 29.4833 4.407 69.1044
Me 9.2963 21.822 109.816
C 9.1863 22.611 111.04
N 9.0973 23.244 112.02
Me 13.1833 34.358 101.801
C 13.9513 33.417 100.991
N 14.5673 32.664 100.341
Me 2.7013 10.626 71.1224
C 3.1633 9.803 72.2354
N 3.5333 9.143 73.1284
Me 21.9823 6.096 140.207
C 22.8143 4.978 140.641
N 23.4823 4.082 140.988
Me 20.5273 1.987 140.655
C 19.3433 2.832 140.784
N 18.3943 3.508 140.887
Me 26.3223 34.36 103.903
C 26.6623 33.174 103.123
N 26.9353 32.224 102.498
Me 17.5143 21.854 106.479
C 18.7103 22.632 106.791
N 19.6683 23.255 107.041
Me 4.5923 33.442 137.421
C 4.6593 33.95 136.054
N 4.7133 34.358 134.959
Me 25.0073 22.228 106.992
C 25.8243 21.025 106.86
N 26.4793 20.062 106.755
Me 29.3933 7.842 64.6214
C 29.7323 8.067 66.0234
N 30.0033 8.248 67.1474
Me 18.0163 7.793 122.525
C 17.8363 8.237 123.904
N 17.6923 8.592 125.009
Me 1.9473 6.645 72.7174
C 1.4083 7.667 71.8254
N 0.975299 8.487 71.1104
Me 17.5883 32.847 137.894
C 17.5673 32.858 139.353
N 17.5493 32.868 140.523
Me 30.1753 16.584 138.866
C 30.4973 16.683 140.287
N 30.7563 16.762 141.425
Me 27.5603 8.93 117.024
C 27.5133 8.889 115.565
N 27.4753 8.855 114.397
Me 26.9293 20.36 84.3094
C 26.9273 20.151 85.7544
N 26.9263 19.983 86.9124
Me 1.4373 12.482 79.9134
C 2.5073 12.979 80.7734
N 3.3653 13.377 81.4624
Me 33.1273 33.885 90.4704
C 31.6743 34.016 90.5354
N 30.5103 34.121 90.5874
Me 22.0273 21.459 59.0364
C 22.1223 21.126 60.4544
N 22.1983 20.859 61.5914
Me 5.9373 14.358 67.1124
C 5.1463 13.759 68.1834
N 4.5123 13.279 69.0414
Me 24.1473 26.681 132.683
C 24.0953 25.973 131.407
N 24.0533 25.405 130.385
Me 11.3373 5.493 130.191
C 12.2273 5.878 131.283
N 12.9413 6.186 132.157
Me 6.9563 16.197 64.2074
C 7.3573 15.737 62.8804
N 7.6793 15.369 61.8184
Me 21.3863 31.931 103.282
C 21.3853 30.501 103.577
N 21.3843 29.355 103.814
Me 8.7683 14.212 90.2844
C 8.4133 14.069 88.8754
N 8.1283 13.955 87.7464
Me 18.0933 23.001 92.9124
C 18.4723 23.516 94.2244
N 18.7763 23.929 95.2764
Me 11.8493 20.601 93.8134
C 10.9843 21.519 93.0764
N 10.2913 22.254 92.4864
Me 2.7863 6.976 104.973
C 2.7343 5.957 106.017
N 2.6933 5.14 106.854
Me 11.3723 17.199 139.763
C 11.2633 16.07 140.682
N 11.1763 15.165 141.418
Me 2.0733 27.286 66.8404
C 3.2673 27.806 66.1814
N 4.2243 28.222 65.6524
Me 32.0373 27.926 116.357
C 32.5933 28.676 115.235
N 33.0393 29.277 114.335
Me 24.1083 1 89.4794
C 23.3463 1.975 90.2544
N 22.7363 2.757 90.8744
Me 22.8723 31.386 69.1714
C 23.1103 30.689 70.4324
N 23.3003 30.13 71.4424
Me 17.0463 14.731 123.527
C 17.1543 13.281 123.656
N 17.2403 12.119 123.76
Me 17.8833 27.781 122.856
C 18.6693 28.767 123.591
N 19.2993 29.558 124.181
Me 4.8933 17.095 59.4114
C 5.1803 15.769 59.9514
N 5.4113 14.707 60.3834
Me 8.3803 31.373 90.8384
C 7.5453 32.074 91.8094
N 6.8763 32.636 92.5874
Me 3.1903 9.858 108.922
C 4.5723 9.648 109.343
N 5.6803 9.481 109.681
Me 31.3523 18.683 123.273
C 32.1533 17.838 122.391
N 32.7943 17.161 121.684
Me 12.8473 20.791 97.6654
C 11.7923 21.334 96.8154
N 10.9463 21.769 96.1344
Me 18.1153 18.524 114.451
C 16.7823 18.801 113.924
N 15.7143 19.023 113.501
Me 30.6463 28.743 98.1804
C 30.5943 28.686 99.6384
N 30.5533 28.64 100.807
Me 29.5403 24.163 99.7594
C 30.1533 23.446 100.873
N 30.6443 22.871 101.766
Me 22.4493 17.66 128.818
C 23.1873 16.494 128.342
N 23.7783 15.559 127.96
Me 7.3633 1.64 102.282
C 8.7793 1.896 102.532
N 9.9133 2.101 102.733
Me 24.9293 32.826 83.1384
C 25.7493 31.949 82.3084
N 26.4073 31.246 81.6434
Me 22.5783 22.957 73.4584
C 21.3603 22.296 73.9164
N 20.3833 21.765 74.2834
Me 31.5943 28.666 119.012
C 31.3373 28.971 120.417
N 31.1313 29.216 121.542
Me 28.8023 5.633 78.7114
C 28.5843 4.196 78.5714
N 28.4103 3.045 78.4584
Me 26.9703 3.845 95.9754
C 25.5393 3.708 95.7204
N 24.3923 3.598 95.5154
Me 7.3953 13.994 92.6574
C 6.4523 13.565 91.6284
N 5.6963 13.221 90.8044
Me 10.1633 25.831 110.231
C 10.8743 25.236 111.359
N 11.4433 24.76 112.263
Me 30.6813 32.676 84.0144
C 30.7663 32.812 85.4654
N 30.8333 32.921 86.6284
Me 11.5223 5.416 82.9384
C 10.9573 6.18 84.0464
N 10.5043 6.793 84.9344
Me 1.4373 6.941 63.9054
C 1.1833 6.788 62.4764
N 0.978299 6.665 61.3304
Me 0.977299 7.907 109.454
C 0.981299 7.913 107.994
N 0.984299 7.918 106.824
Me 34.1083 28.248 91.1614
C 33.0203 27.503 91.7884
N 32.1473 26.907 92.2904
Me 31.3193 32.568 134.358
C 31.1623 31.283 135.033
N 31.0363 30.253 135.574
Me 18.5893 20.601 87.0924
C 17.5803 20.294 86.0824
N 16.7723 20.049 85.2734
Me 16.4313 30.667 120.007
C 15.9343 32.011 119.726
N 15.5363 33.087 119.5
Me 16.9703 11.817 109.813
C 15.6733 11.781 109.143
N 14.6343 11.752 108.605
Me 9.4963 16.79 102.474
C 10.0503 17.073 103.795
N 10.4943 17.299 104.854
Me 13.2123 26.002 73.5034
C 14.1703 26.753 72.6974
N 14.9383 27.354 72.0514
Me 15.4893 11.825 103.859
C 15.9223 11.708 105.248
N 16.2703 11.614 106.361
Me 18.2163 20.23 136.476
C 17.9873 21.384 137.341
N 17.8033 22.308 138.034
Me 31.0833 15.748 68.4204
C 32.5143 15.845 68.1484
N 33.6613 15.922 67.9304
Me 16.6243 12.394 129.303
C 16.9833 13.805 129.188
N 17.2713 14.935 129.096
Me 13.6813 25.376 116.956
C 13.4573 25.565 118.387
N 13.2773 25.717 119.533
Me 32.5773 12.367 141.419
C 33.5543 11.283 141.384
N 34.3383 10.415 141.357
Me 13.0213 20.06 121.165
C 12.4553 21.365 120.832
N 12.0023 22.41 120.565
Me 27.0713 14 70.3064
C 28.3973 14.598 70.4334
N 29.4593 15.077 70.5364
Me 29.6723 8.044 138.401
C 30.8693 8.389 137.64
N 31.8293 8.666 137.03
Me 26.0583 23.578 64.3434
C 24.9683 23.685 65.3094
N 24.0953 23.77 66.0824
Me 6.7213 29.312 128.776
C 6.6833 27.953 129.308
N 6.6533 26.864 129.734
Me 30.7723 23.645 93.9814
C 30.7343 23.52 95.4354
N 30.7043 23.42 96.6004
Me 23.4283 32.14 106.289
C 24.1813 32.048 107.536
N 24.7853 31.974 108.536
Me 20.9513 28.066 61.4434
C 19.6163 27.836 60.9004
N 18.5453 27.652 60.4654
Me 34.3103 6.757 95.0914
C 34.3263 6.768 96.5504
N 34.3383 6.778 97.7204
Me 19.3123 24.574 115.441
C 19.9993 23.41 115.993
N 20.5493 22.477 116.434
Me 15.1543 29.549 124.37
C 15.2563 28.156 123.943
N 15.3383 27.041 123.601
Me 28.0883 4.816 125.024
C 28.4273 4.823 126.444
N 28.6983 4.828 127.582
Me 12.3503 3.387 72.8124
C 11.1873 4.253 72.6434
N 10.2553 4.947 72.5074
Me 17.8923 9.447 65.7504
C 17.5093 9.76 64.3764
N 17.2023 10.011 63.2764
Me 27.7973 25.346 63.1554
C 26.8843 26.409 62.7464
N 26.1523 27.262 62.4194
Me 7.4283 6.527 130.344
C 8.2323 5.428 129.817
N 8.8763 4.548 129.395
Me 33.2453 27.918 67.1504
C 33.2453 27.917 68.6104
N 33.2453 27.917 69.7804
Me 5.4613 12.215 125.288
C 4.8913 12.265 126.631
N 4.4343 12.305 127.707
Me 10.5423 13.281 111.173
C 10.1463 14.491 110.458
N 9.8293 15.46 109.886
Me 21.1593 22.465 96.3784
C 21.3263 21.017 96.2914
N 21.4603 19.856 96.2224
Me 11.8623 31.72 90.5454
C 12.7933 32.499 91.3564
N 13.5393 33.122 92.0064
Me 30.6903 18.646 120.208
C 29.7983 17.78 120.973
N 29.0833 17.086 121.586
Me 8.5763 24.054 94.3774
C 9.0943 25.416 94.4694
N 9.5093 26.507 94.5424
Me 32.3173 30.863 132.446
C 33.1923 31.935 131.979
N 33.8923 32.794 131.606
Me 19.7513 8 114.341
C 20.0403 9.405 114.071
N 20.2723 10.532 113.854
Me 15.2493 25.272 95.9834
C 14.0873 26.079 96.3424
N 13.1553 26.726 96.6304
Me 15.5233 31.135 83.7194
C 15.9083 30.954 82.3224
N 16.2163 30.808 81.2034
Me 14.7513 18.491 105.482
C 14.3773 18.407 104.073
N 14.0773 18.34 102.944
Me 29.5623 14.367 113.919
C 29.5843 14.163 115.364
N 29.6013 14 116.523
Me 34.3393 16.22 78.5324
C 34.3023 16.181 79.9914
N 34.2733 16.15 81.1604
Me 24.0603 15.719 73.6194
C 23.7943 15.601 75.0504
N 23.5813 15.505 76.1964
Me 22.9863 34.001 119.373
C 21.7533 34.199 120.129
N 20.7653 34.358 120.735
Me 3.6963 12.393 103.646
C 3.5313 11.86 102.297
N 3.3983 11.433 101.216
Me 10.9993 2.159 118.431
C 10.4123 1.98 119.756
N 9.9423 1.836 120.818
Me 21.3633 25.02 129.961
C 21.5413 24.952 131.409
N 21.6843 24.897 132.569
Me 7.9963 6.746 127.297
C 8.2773 8.074 126.76
N 8.5033 9.139 126.33
Me 4.3293 24.972 140.033
C 5.4023 25.882 140.427
N 6.2613 26.61 140.743
Me 34.1333 4.823 109.162
C 33.3493 5.537 110.166
N 32.7213 6.108 110.97
Me 25.7843 4.972 66.2874
C 25.6543 4.467 67.6514
N 25.5513 4.062 68.7444
Me 2.6633 30.365 77.3744
C 2.4303 30.464 75.9364
N 2.2433 30.544 74.7844
Me 7.3563 20.166 69.7054
C 8.5713 19.773 68.9984
N 9.5453 19.458 68.4314
Me 27.5893 21.719 97.1254
C 26.3833 21.644 97.9444
N 25.4163 21.584 98.6004
Me 13.8043 17.412 114.649
C 13.4213 16.785 115.911
N 13.1153 16.283 116.922
Me 15.2173 10.322 70.3874
C 15.3043 10.245 68.9324
N 15.3743 10.184 67.7654
Me 17.7833 1.744 74.9854
C 18.1543 2.125 73.6254
N 18.4513 2.431 72.5364
Me 17.9103 28.226 70.5414
C 16.5523 28.41 70.0384
N 15.4643 28.558 69.6354
Me 16.8553 13.16 118.263
C 15.7613 14.117 118.393
N 14.8833 14.884 118.497
Me 21.8093 8.935 129.402
C 22.9533 8.488 130.191
N 23.8713 8.13 130.822
Me 3.1753 18.032 99.2044
C 1.9553 18.809 99.0084
N 0.977299 19.432 98.8504
Me 7.6043 30.139 93.9234
C 7.5013 29.944 95.3664
N 7.4193 29.787 96.5234
Me 25.7263 3.405 113.211
C 26.7973 4.192 112.607
N 27.6553 4.824 112.122
Me 13.4163 14.075 73.0174
C 13.1153 14.476 71.6464
N 12.8743 14.797 70.5474
Me 34.2533 19.92 64.0804
C 34.3073 19.188 65.3434
N 34.3503 18.602 66.3544
Me 31.3153 3.594 136.533
C 32.5793 3.033 136.065
N 33.5923 2.584 135.689
Me 22.9393 31.257 119.182
C 23.0893 30.334 118.061
N 23.2103 29.594 117.163
Me 18.2583 18.684 90.0414
C 19.4113 18.843 89.1604
N 20.3363 18.971 88.4554
Me 4.3633 6.409 126.016
C 3.0373 6.057 125.515
N 1.9753 5.774 125.113
Me 17.8763 27.044 63.3354
C 19.1003 27.736 63.7284
N 20.0813 28.29 64.0424
Me 21.8193 21.973 113.637
C 21.3213 21.813 112.274
N 20.9213 21.685 111.182
Me 3.1543 32.775 65.5484
C 2.2523 32.267 64.5184
N 1.5293 31.861 63.6934
Me 10.6663 19.596 81.1424
C 11.1633 20.831 81.7424
N 11.5613 21.82 82.2234
Me 10.0803 6.892 99.3924
C 9.8013 5.567 99.9354
N 9.5773 4.504 100.371
Me 9.4413 2.896 137.674
C 10.0923 3.774 138.643
N 10.6133 4.477 139.419
Me 27.7793 10.162 67.8654
C 26.3273 10.293 67.7794
N 25.1643 10.398 67.7094
Me 34.3443 25.711 79.6434
C 34.3233 24.408 80.3014
N 34.3063 23.364 80.8284
Me 31.2763 12.757 109.341
C 31.1573 12.897 110.79
N 31.0613 13.009 111.95
Me 6.7823 22.13 118.869
C 6.3623 21.453 120.093
N 6.0263 20.91 121.074
Me 32.6813 18.966 135.082
C 32.1563 17.922 135.958
N 31.7363 17.085 136.659
Me 3.8823 22.893 111.636
C 4.0243 24.309 111.961
N 4.1373 25.444 112.222
Me 12.9543 1 79.3204
C 11.5043 1.052 79.1584
N 10.3423 1.094 79.0284
Me 2.3233 23.955 116.333
C 2.2653 23.601 114.918
N 2.2183 23.318 113.784
Me 8.7583 15.772 136.203
C 8.9703 15.706 137.646
N 9.1403 15.652 138.802
Me 7.3213 17.742 132.029
C 7.3653 17.816 133.487
N 7.4003 17.875 134.655
Me 13.6503 7.26 75.6664
C 12.6543 8.071 74.9724
N 11.8563 8.72 74.4154
Me 34.3523 27.623 132.548
C 34.2673 28.739 131.611
N 34.1983 29.633 130.86
Me 1.4003 13.686 85.4114
C 1.1663 13.107 84.0924
N 0.979299 12.642 83.0344
Me 2.3813 21.012 73.4094
C 3.0343 21.165 74.7064
N 3.5563 21.288 75.7454
Me 4.8263 7.195 122.52
C 4.0073 7.913 123.492
N 3.3513 8.489 124.271
Me 17.7383 31.316 128.212
C 17.2323 31.442 129.576
N 16.8263 31.543 130.668
Me 28.6883 23.985 91.2874
C 29.2243 25.038 92.1454
N 29.6543 25.881 92.8334
Me 28.8553 9.499 89.7944
C 29.8523 9.337 90.8494
N 30.6513 9.207 91.6934
Me 5.2783 19.614 98.4074
C 5.3013 19.646 99.8664
N 5.3193 19.672 101.036
Me 6.9893 10.867 91.3964
C 7.2303 10.897 92.8364
N 7.4233 10.921 93.9904
Me 4.2583 13.969 75.7874
C 3.4193 13.918 76.9814